<VTKFile type="UnstructuredGrid" version="0.1">
    <UnstructuredGrid>
        <Piece NumberOfPoints="2160" NumberOfCells="270" NumberOfCellsXY="9" type="Rectangular Mesh" Extent="3 3 30">
            <Points>
                <DataArray Name="Vertices" type="Float64" NumberOfComponents="3" format="ascii">
 -0.630000 -0.630000 -21.420000 -1.890000 -0.630000 -21.420000 -1.890000 -1.890000 -21.420000 -0.630000 -1.890000 -21.420000 -0.630000 -0.630000 -19.992000 -1.890000 -0.630000 -19.992000 -1.890000 -1.890000 -19.992000 -0.630000 -1.890000 -19.992000 0.630000 -0.630000 -21.420000 -0.630000 -0.630000 -21.420000 -0.630000 -1.890000 -21.420000 0.630000 -1.890000 -21.420000 0.630000 -0.630000 -19.992000 -0.630000 -0.630000 -19.992000 -0.630000 -1.890000 -19.992000 0.630000 -1.890000 -19.992000 1.890000 -0.630000 -21.420000 0.630000 -0.630000 -21.420000 0.630000 -1.890000 -21.420000 1.890000 -1.890000 -21.420000 1.890000 -0.630000 -19.992000 0.630000 -0.630000 -19.992000 0.630000 -1.890000 -19.992000 1.890000 -1.890000 -19.992000 -0.630000 0.630000 -21.420000 -1.890000 0.630000 -21.420000 -1.890000 -0.630000 -21.420000 -0.630000 -0.630000 -21.420000 -0.630000 0.630000 -19.992000 -1.890000 0.630000 -19.992000 -1.890000 -0.630000 -19.992000 -0.630000 -0.630000 -19.992000 0.630000 0.630000 -21.420000 -0.630000 0.630000 -21.420000 -0.630000 -0.630000 -21.420000 0.630000 -0.630000 -21.420000 0.630000 0.630000 -19.992000 -0.630000 0.630000 -19.992000 -0.630000 -0.630000 -19.992000 0.630000 -0.630000 -19.992000 1.890000 0.630000 -21.420000 0.630000 0.630000 -21.420000 0.630000 -0.630000 -21.420000 1.890000 -0.630000 -21.420000 1.890000 0.630000 -19.992000 0.630000 0.630000 -19.992000 0.630000 -0.630000 -19.992000 1.890000 -0.630000 -19.992000 -0.630000 1.890000 -21.420000 -1.890000 1.890000 -21.420000 -1.890000 0.630000 -21.420000 -0.630000 0.630000 -21.420000 -0.630000 1.890000 -19.992000 -1.890000 1.890000 -19.992000 -1.890000 0.630000 -19.992000 -0.630000 0.630000 -19.992000 0.630000 1.890000 -21.420000 -0.630000 1.890000 -21.420000 -0.630000 0.630000 -21.420000 0.630000 0.630000 -21.420000 0.630000 1.890000 -19.992000 -0.630000 1.890000 -19.992000 -0.630000 0.630000 -19.992000 0.630000 0.630000 -19.992000 1.890000 1.890000 -21.420000 0.630000 1.890000 -21.420000 0.630000 0.630000 -21.420000 1.890000 0.630000 -21.420000 1.890000 1.890000 -19.992000 0.630000 1.890000 -19.992000 0.630000 0.630000 -19.992000 1.890000 0.630000 -19.992000 -0.630000 -0.630000 -19.992000 -1.890000 -0.630000 -19.992000 -1.890000 -1.890000 -19.992000 -0.630000 -1.890000 -19.992000 -0.630000 -0.630000 -18.564000 -1.890000 -0.630000 -18.564000 -1.890000 -1.890000 -18.564000 -0.630000 -1.890000 -18.564000 0.630000 -0.630000 -19.992000 -0.630000 -0.630000 -19.992000 -0.630000 -1.890000 -19.992000 0.630000 -1.890000 -19.992000 0.630000 -0.630000 -18.564000 -0.630000 -0.630000 -18.564000 -0.630000 -1.890000 -18.564000 0.630000 -1.890000 -18.564000 1.890000 -0.630000 -19.992000 0.630000 -0.630000 -19.992000 0.630000 -1.890000 -19.992000 1.890000 -1.890000 -19.992000 1.890000 -0.630000 -18.564000 0.630000 -0.630000 -18.564000 0.630000 -1.890000 -18.564000 1.890000 -1.890000 -18.564000 -0.630000 0.630000 -19.992000 -1.890000 0.630000 -19.992000 -1.890000 -0.630000 -19.992000 -0.630000 -0.630000 -19.992000 -0.630000 0.630000 -18.564000 -1.890000 0.630000 -18.564000 -1.890000 -0.630000 -18.564000 -0.630000 -0.630000 -18.564000 0.630000 0.630000 -19.992000 -0.630000 0.630000 -19.992000 -0.630000 -0.630000 -19.992000 0.630000 -0.630000 -19.992000 0.630000 0.630000 -18.564000 -0.630000 0.630000 -18.564000 -0.630000 -0.630000 -18.564000 0.630000 -0.630000 -18.564000 1.890000 0.630000 -19.992000 0.630000 0.630000 -19.992000 0.630000 -0.630000 -19.992000 1.890000 -0.630000 -19.992000 1.890000 0.630000 -18.564000 0.630000 0.630000 -18.564000 0.630000 -0.630000 -18.564000 1.890000 -0.630000 -18.564000 -0.630000 1.890000 -19.992000 -1.890000 1.890000 -19.992000 -1.890000 0.630000 -19.992000 -0.630000 0.630000 -19.992000 -0.630000 1.890000 -18.564000 -1.890000 1.890000 -18.564000 -1.890000 0.630000 -18.564000 -0.630000 0.630000 -18.564000 0.630000 1.890000 -19.992000 -0.630000 1.890000 -19.992000 -0.630000 0.630000 -19.992000 0.630000 0.630000 -19.992000 0.630000 1.890000 -18.564000 -0.630000 1.890000 -18.564000 -0.630000 0.630000 -18.564000 0.630000 0.630000 -18.564000 1.890000 1.890000 -19.992000 0.630000 1.890000 -19.992000 0.630000 0.630000 -19.992000 1.890000 0.630000 -19.992000 1.890000 1.890000 -18.564000 0.630000 1.890000 -18.564000 0.630000 0.630000 -18.564000 1.890000 0.630000 -18.564000 -0.630000 -0.630000 -18.564000 -1.890000 -0.630000 -18.564000 -1.890000 -1.890000 -18.564000 -0.630000 -1.890000 -18.564000 -0.630000 -0.630000 -17.136000 -1.890000 -0.630000 -17.136000 -1.890000 -1.890000 -17.136000 -0.630000 -1.890000 -17.136000 0.630000 -0.630000 -18.564000 -0.630000 -0.630000 -18.564000 -0.630000 -1.890000 -18.564000 0.630000 -1.890000 -18.564000 0.630000 -0.630000 -17.136000 -0.630000 -0.630000 -17.136000 -0.630000 -1.890000 -17.136000 0.630000 -1.890000 -17.136000 1.890000 -0.630000 -18.564000 0.630000 -0.630000 -18.564000 0.630000 -1.890000 -18.564000 1.890000 -1.890000 -18.564000 1.890000 -0.630000 -17.136000 0.630000 -0.630000 -17.136000 0.630000 -1.890000 -17.136000 1.890000 -1.890000 -17.136000 -0.630000 0.630000 -18.564000 -1.890000 0.630000 -18.564000 -1.890000 -0.630000 -18.564000 -0.630000 -0.630000 -18.564000 -0.630000 0.630000 -17.136000 -1.890000 0.630000 -17.136000 -1.890000 -0.630000 -17.136000 -0.630000 -0.630000 -17.136000 0.630000 0.630000 -18.564000 -0.630000 0.630000 -18.564000 -0.630000 -0.630000 -18.564000 0.630000 -0.630000 -18.564000 0.630000 0.630000 -17.136000 -0.630000 0.630000 -17.136000 -0.630000 -0.630000 -17.136000 0.630000 -0.630000 -17.136000 1.890000 0.630000 -18.564000 0.630000 0.630000 -18.564000 0.630000 -0.630000 -18.564000 1.890000 -0.630000 -18.564000 1.890000 0.630000 -17.136000 0.630000 0.630000 -17.136000 0.630000 -0.630000 -17.136000 1.890000 -0.630000 -17.136000 -0.630000 1.890000 -18.564000 -1.890000 1.890000 -18.564000 -1.890000 0.630000 -18.564000 -0.630000 0.630000 -18.564000 -0.630000 1.890000 -17.136000 -1.890000 1.890000 -17.136000 -1.890000 0.630000 -17.136000 -0.630000 0.630000 -17.136000 0.630000 1.890000 -18.564000 -0.630000 1.890000 -18.564000 -0.630000 0.630000 -18.564000 0.630000 0.630000 -18.564000 0.630000 1.890000 -17.136000 -0.630000 1.890000 -17.136000 -0.630000 0.630000 -17.136000 0.630000 0.630000 -17.136000 1.890000 1.890000 -18.564000 0.630000 1.890000 -18.564000 0.630000 0.630000 -18.564000 1.890000 0.630000 -18.564000 1.890000 1.890000 -17.136000 0.630000 1.890000 -17.136000 0.630000 0.630000 -17.136000 1.890000 0.630000 -17.136000 -0.630000 -0.630000 -17.136000 -1.890000 -0.630000 -17.136000 -1.890000 -1.890000 -17.136000 -0.630000 -1.890000 -17.136000 -0.630000 -0.630000 -15.708000 -1.890000 -0.630000 -15.708000 -1.890000 -1.890000 -15.708000 -0.630000 -1.890000 -15.708000 0.630000 -0.630000 -17.136000 -0.630000 -0.630000 -17.136000 -0.630000 -1.890000 -17.136000 0.630000 -1.890000 -17.136000 0.630000 -0.630000 -15.708000 -0.630000 -0.630000 -15.708000 -0.630000 -1.890000 -15.708000 0.630000 -1.890000 -15.708000 1.890000 -0.630000 -17.136000 0.630000 -0.630000 -17.136000 0.630000 -1.890000 -17.136000 1.890000 -1.890000 -17.136000 1.890000 -0.630000 -15.708000 0.630000 -0.630000 -15.708000 0.630000 -1.890000 -15.708000 1.890000 -1.890000 -15.708000 -0.630000 0.630000 -17.136000 -1.890000 0.630000 -17.136000 -1.890000 -0.630000 -17.136000 -0.630000 -0.630000 -17.136000 -0.630000 0.630000 -15.708000 -1.890000 0.630000 -15.708000 -1.890000 -0.630000 -15.708000 -0.630000 -0.630000 -15.708000 0.630000 0.630000 -17.136000 -0.630000 0.630000 -17.136000 -0.630000 -0.630000 -17.136000 0.630000 -0.630000 -17.136000 0.630000 0.630000 -15.708000 -0.630000 0.630000 -15.708000 -0.630000 -0.630000 -15.708000 0.630000 -0.630000 -15.708000 1.890000 0.630000 -17.136000 0.630000 0.630000 -17.136000 0.630000 -0.630000 -17.136000 1.890000 -0.630000 -17.136000 1.890000 0.630000 -15.708000 0.630000 0.630000 -15.708000 0.630000 -0.630000 -15.708000 1.890000 -0.630000 -15.708000 -0.630000 1.890000 -17.136000 -1.890000 1.890000 -17.136000 -1.890000 0.630000 -17.136000 -0.630000 0.630000 -17.136000 -0.630000 1.890000 -15.708000 -1.890000 1.890000 -15.708000 -1.890000 0.630000 -15.708000 -0.630000 0.630000 -15.708000 0.630000 1.890000 -17.136000 -0.630000 1.890000 -17.136000 -0.630000 0.630000 -17.136000 0.630000 0.630000 -17.136000 0.630000 1.890000 -15.708000 -0.630000 1.890000 -15.708000 -0.630000 0.630000 -15.708000 0.630000 0.630000 -15.708000 1.890000 1.890000 -17.136000 0.630000 1.890000 -17.136000 0.630000 0.630000 -17.136000 1.890000 0.630000 -17.136000 1.890000 1.890000 -15.708000 0.630000 1.890000 -15.708000 0.630000 0.630000 -15.708000 1.890000 0.630000 -15.708000 -0.630000 -0.630000 -15.708000 -1.890000 -0.630000 -15.708000 -1.890000 -1.890000 -15.708000 -0.630000 -1.890000 -15.708000 -0.630000 -0.630000 -14.280000 -1.890000 -0.630000 -14.280000 -1.890000 -1.890000 -14.280000 -0.630000 -1.890000 -14.280000 0.630000 -0.630000 -15.708000 -0.630000 -0.630000 -15.708000 -0.630000 -1.890000 -15.708000 0.630000 -1.890000 -15.708000 0.630000 -0.630000 -14.280000 -0.630000 -0.630000 -14.280000 -0.630000 -1.890000 -14.280000 0.630000 -1.890000 -14.280000 1.890000 -0.630000 -15.708000 0.630000 -0.630000 -15.708000 0.630000 -1.890000 -15.708000 1.890000 -1.890000 -15.708000 1.890000 -0.630000 -14.280000 0.630000 -0.630000 -14.280000 0.630000 -1.890000 -14.280000 1.890000 -1.890000 -14.280000 -0.630000 0.630000 -15.708000 -1.890000 0.630000 -15.708000 -1.890000 -0.630000 -15.708000 -0.630000 -0.630000 -15.708000 -0.630000 0.630000 -14.280000 -1.890000 0.630000 -14.280000 -1.890000 -0.630000 -14.280000 -0.630000 -0.630000 -14.280000 0.630000 0.630000 -15.708000 -0.630000 0.630000 -15.708000 -0.630000 -0.6300
[...]
            <CellData>
                <DataArray Name="Valid Indices" type="Int32" format="ascii">
 0 1 2 3 4 5 6 7 8 9 10 11 12 13 14 15 16 17 18 19 20 21 22 23 24 25 26 27 28 29 30 31 32 33 34 35 36 37 38 39 40 41 42 43 44 45 46 47 48 49 50 51 52 53 54 55 56 57 58 59 60 61 62 63 64 65 66 67 68 69 70 71 72 73 74 75 76 77 78 79 80 81 82 83 84 85 86 87 88 89 90 91 92 93 94 95 96 97 98 99 100 101 102 103 104 105 106 107 108 109 110 111 112 113 114 115 116 117 118 119 120 121 122 123 124 125 126 127 128 129 130 131 132 133 134 135 136 137 138 139 140 141 142 143 144 145 146 147 148 149 150 151 152 153 154 155 156 157 158 159 160 161 162 163 164 165 166 167 168 169 170 171 172 173 174 175 176 177 178 179 180 181 182 183 184 185 186 187 188 189 190 191 192 193 194 195 196 197 198 199 200 201 202 203 204 205 206 207 208 209 210 211 212 213 214 215 216 217 218 219 220 221 222 223 224 225 226 227 228 229 230 231 232 233 234 235 236 237 238 239 240 241 242 243 244 245 246 247 248 249 250 251 252 253 254 255 256 257 258 259 260 261 262 263 264 265 266 267 268 269
</DataArray>
                <DataArray Name="Volume" type="Float64" format="ascii">
2.18161501 2.41545587 2.18161501 
2.43658294 1.97329753 2.43658294 
2.18161501 2.41545587 2.18161501 
2.18381316 2.41985217 2.18381316 
2.43585023 1.95717777 2.43585023 
2.18381316 2.41985217 2.18381316 
2.18747674 2.43011020 2.18747674 
2.42705763 1.93959257 2.42705763 
2.18747674 2.43011020 2.18747674 
2.18527859 2.43450650 2.18527859 
2.42705763 1.93959257 2.42705763 
2.18527859 2.43450650 2.18527859 
2.18820946 2.42864477 2.18820946 
2.42705763 1.93959257 2.42705763 
2.18820946 2.42864477 2.18820946 
2.19071312 2.43114842 2.19071312 
2.42205032 1.93458526 2.42205032 
2.19071312 2.43114842 2.19071312 
2.18778225 2.43701015 2.18778225 
2.42205032 1.93458526 2.42205032 
2.18778225 2.43701015 2.18778225 
2.18998040 2.43261385 2.18998040 
2.42205032 1.93458526 2.42205032 
2.18998040 2.43261385 2.18998040 
2.18631682 2.42235582 2.18631682 
2.43084292 1.95217046 2.43084292 
2.18631682 2.42235582 2.18631682 
2.18411867 2.41795952 2.18411867 
2.43157563 1.96829022 2.43157563 
2.18411867 2.41795952 2.18411867 
2.18411867 2.41795952 2.18411867 
2.43157563 1.96829022 2.43157563 
2.18411867 2.41795952 2.18411867 
2.18631682 2.42235582 2.18631682 
2.43084292 1.95217046 2.43084292 
2.18631682 2.42235582 2.18631682 
2.18998040 2.43261385 2.18998040 
2.42205032 1.93458526 2.42205032 
2.18998040 2.43261385 2.18998040 
2.18778225 2.43701015 2.18778225 
2.42205032 1.93458526 2.42205032 
2.18778225 2.43701015 2.18778225 
2.19071312 2.43114842 2.19071312 
2.42205032 1.93458526 2.42205032 
2.19071312 2.43114842 2.19071312 
2.19071312 2.43114842 2.19071312 
2.42205032 1.93458526 2.42205032 
2.19071312 2.43114842 2.19071312 
2.18778225 2.43701015 2.18778225 
2.42205032 1.93458526 2.42205032 
2.18778225 2.43701015 2.18778225 
2.18998040 2.43261385 2.18998040 
2.42205032 1.93458526 2.42205032 
2.18998040 2.43261385 2.18998040 
2.18631682 2.42235582 2.18631682 
2.43084292 1.95217046 2.43084292 
2.18631682 2.42235582 2.18631682 
2.18411867 2.41795952 2.18411867 
2.43157563 1.96829022 2.43157563 
2.18411867 2.41795952 2.18411867 
2.18411867 2.41795952 2.18411867 
2.43157563 1.96829022 2.43157563 
2.18411867 2.41795952 2.18411867 
2.18631682 2.42235582 2.18631682 
2.43084292 1.95217046 2.43084292 
2.18631682 2.42235582 2.18631682 
2.18998040 2.43261385 2.18998040 
2.42205032 1.93458526 2.42205032 
2.18998040 2.43261385 2.18998040 
2.18778225 2.43701015 2.18778225 
2.42205032 1.93458526 2.42205032 
2.18778225 2.43701015 2.18778225 
2.19071312 2.43114842 2.19071312 
2.42205032 1.93458526 2.42205032 
2.19071312 2.43114842 2.19071312 
2.18820946 2.42864477 2.18820946 
2.42705763 1.93959257 2.42705763 
2.18820946 2.42864477 2.18820946 
2.18527859 2.43450650 2.18527859 
2.42705763 1.93959257 2.42705763 
2.18527859 2.43450650 2.18527859 
2.18747674 2.43011020 2.18747674 
2.42705763 1.93959257 2.42705763 
2.18747674 2.43011020 2.18747674 
2.18381316 2.41985217 2.18381316 
2.43585023 1.95717777 2.43585023 
2.18381316 2.41985217 2.18381316 
2.18161501 2.41545587 2.18161501 
2.43658294 1.97329753 2.43658294 
2.18161501 2.41545587 2.18161501 
</DataArray>
                <DataArray Name="Fission RX" type="Float64" format="ascii">
6.77385890 5.99355084 6.77385890 
5.98945754 0.00000000 5.98945754 
6.77385890 5.99355084 6.77385890 
6.68676034 5.95921044 6.68676034 
5.94025410 0.00000000 5.94025410 
6.68676034 5.95921044 6.68676034 
6.65379698 5.91997038 6.65379698 
5.92342594 0.00000000 5.92342594 
6.65379698 5.91997038 6.65379698 
6.64720169 5.85638498 6.64720169 
5.87816612 0.00000000 5.87816612 
6.64720169 5.85638498 6.64720169 
6.63286464 5.89825582 6.63286464 
5.87492192 0.00000000 5.87492192 
6.63286464 5.89825582 6.63286464 
6.64100356 5.91353533 6.64100356 
5.88853417 0.00000000 5.88853417 
6.64100356 5.91353533 6.64100356 
6.71387435 5.93150574 6.71387435 
5.95287885 0.00000000 5.95287885 
6.71387435 5.93150574 6.71387435 
6.70092577 5.95621760 6.70092577 
5.96108748 0.00000000 5.96108748 
6.70092577 5.95621760 6.70092577 
6.68528354 5.95654136 6.68528354 
5.94395492 0.00000000 5.94395492 
6.68528354 5.95654136 6.68528354 
6.64604129 5.91018736 6.64604129 
5.91579310 0.00000000 5.91579310 
6.64604129 5.91018736 6.64604129 
6.64044020 5.89923264 6.64044020 
5.90001269 0.00000000 5.90001269 
6.64044020 5.89923264 6.64044020 
6.61887596 5.88484902 6.61887596 
5.86228707 0.00000000 5.86228707 
6.61887596 5.88484902 6.61887596 
6.64013599 5.91007747 6.64013599 
5.91419605 0.00000000 5.91419605 
6.64013599 5.91007747 6.64013599 
6.68094442 5.90586523 6.68094442 
5.95589210 0.00000000 5.95589210 
6.68094442 5.90586523 6.68094442 
6.70124465 5.95274660 6.70124465 
5.96344310 0.00000000 5.96344310 
6.70124465 5.95274660 6.70124465 
6.70124463 5.95274657 6.70124463 
5.96344309 0.00000000 5.96344309 
6.70124463 5.95274657 6.70124463 
6.68094438 5.90586518 6.68094438 
5.95589206 0.00000000 5.95589206 
6.68094438 5.90586518 6.68094438 
6.64013588 5.91007739 6.64013588 
5.91419598 0.00000000 5.91419598 
6.64013588 5.91007739 6.64013588 
6.61887584 5.88484891 6.61887584 
5.86228698 0.00000000 5.86228698 
6.61887584 5.88484891 6.61887584 
6.64044005 5.89923250 6.64044005 
5.90001255 0.00000000 5.90001255 
6.64044005 5.89923250 6.64044005 
6.64604112 5.91018724 6.64604112 
5.91579290 0.00000000 5.91579290 
6.64604112 5.91018724 6.64604112 
6.68528334 5.95654117 6.68528334 
5.94395474 0.00000000 5.94395474 
6.68528334 5.95654117 6.68528334 
6.70092557 5.95621742 6.70092557 
5.96108729 0.00000000 5.96108729 
6.70092557 5.95621742 6.70092557 
6.71387409 5.93150548 6.71387409 
5.95287861 0.00000000 5.95287861 
6.71387409 5.93150548 6.71387409 
6.64100331 5.91353510 6.64100331 
5.88853394 0.00000000 5.88853394 
6.64100331 5.91353510 6.64100331 
6.63286437 5.89825557 6.63286437 
5.87492169 0.00000000 5.87492169 
6.63286437 5.89825557 6.63286437 
6.64720139 5.85638476 6.64720139 
5.87816583 0.00000000 5.87816583 
6.64720139 5.85638476 6.64720139 
6.65379668 5.91997015 6.65379668 
5.92342572 0.00000000 5.92342572 
6.65379668 5.91997015 6.65379668 
6.68676009 5.95921023 6.68676009 
5.94025386 0.00000000 5.94025386 
6.68676009 5.95921023 6.68676009 
6.77385862 5.99355064 6.77385862 
5.98945730 0.00000000 5.98945730 
6.77385862 5.99355064 6.77385862 
</DataArray>
                <DataArray Name="Avg Fission RX" type="Float64" format="ascii">
4.93223700 4.83684152 4.93223700 
4.85258735 0.00000000 4.85258735 
4.93223700 4.83684152 4.93223700 
4.92009093 4.83826494 4.92009093 
4.84230428 0.00000000 4.84230428 
4.92009093 4.83826494 4.92009093 
4.91063709 4.82810058 4.91063709 
4.83261439 0.00000000 4.83261439 
4.91063709 4.82810058 4.91063709 
4.90375681 4.81826324 4.90375681 
4.82050434 0.00000000 4.82050434 
4.90375681 4.81826324 4.90375681 
4.90146566 4.81637566 4.90146566 
4.81296538 0.00000000 4.81296538 
4.90146566 4.81637566 4.90146566 
4.90358179 4.82038336 4.90358179 
4.81562864 0.00000000 4.81562864 
4.90358179 4.82038336 4.90358179 
4.90735279 4.82662739 4.90735279 
4.82484837 0.00000000 4.82484837 
4.90735279 4.82662739 4.90735279 
4.90943052 4.83484277 4.90943052 
4.83066542 0.00000000 4.83066542 
4.90943052 4.83484277 4.90943052 
4.90906125 4.83342938 4.90906125 
4.82900278 0.00000000 4.82900278 
4.90906125 4.83342938 4.90906125 
4.90711990 4.82750645 4.90711990 
4.82531776 0.00000000 4.82531776 
4.90711990 4.82750645 4.90711990 
4.90339719 4.82324612 4.90339719 
4.82090688 0.00000000 4.82090688 
4.90339719 4.82324612 4.90339719 
4.89994437 4.82174992 4.89994437 
4.81898018 0.00000000 4.81898018 
4.89994437 4.82174992 4.89994437 
4.90055501 4.82003230 4.90055501 
4.82226993 0.00000000 4.82226993 
4.90055501 4.82003230 4.90055501 
4.90223333 4.81837191 4.90223333 
4.82392085 0.00000000 4.82392085 
4.90223333 4.81837191 4.90223333 
4.90303935 4.81977293 4.90303935 
4.82442232 0.00000000 4.82442232 
4.90303935 4.81977293 4.90303935 
4.90303934 4.81977291 4.90303934 
4.82442231 0.00000000 4.82442231 
4.90303934 4.81977291 4.90303934 
4.90223331 4.81837187 4.90223331 
4.82392082 0.00000000 4.82392082 
4.90223331 4.81837187 4.90223331 
4.90055492 4.82003224 4.90055492 
4.82226987 0.00000000 4.82226987 
4.90055492 4.82003224 4.90055492 
4.89994428 4.82174984 4.89994428 
4.81898010 0.00000000 4.81898010 
4.89994428 4.82174984 4.89994428 
4.90339708 4.82324601 4.90339708 
4.82090677 0.00000000 4.82090677 
4.90339708 4.82324601 4.90339708 
4.90711977 4.82750635 4.90711977 
4.82531760 0.00000000 4.82531760 
4.90711977 4.82750635 4.90711977 
4.90906110 4.83342922 4.90906110 
4.82900263 0.00000000 4.82900263 
4.90906110 4.83342922 4.90906110 
4.90943037 4.83484262 4.90943037 
4.83066526 0.00000000 4.83066526 
4.90943037 4.83484262 4.90943037 
4.90735260 4.82662718 4.90735260 
4.82484817 0.00000000 4.82484817 
4.90735260 4.82662718 4.90735260 
4.90358160 4.82038317 4.90358160 
4.81562846 0.00000000 4.81562846 
4.90358160 4.82038317 4.90358160 
4.90146547 4.81637546 4.90146547 
4.81296520 0.00000000 4.81296520 
4.90146547 4.81637546 4.90146547 
4.90375660 4.81826305 4.90375660 
4.82050410 0.00000000 4.82050410 
4.90375660 4.81826305 4.90375660 
4.91063687 4.82810039 4.91063687 
4.83261421 0.00000000 4.83261421 
4.91063687 4.82810039 4.91063687 
4.92009075 4.83826478 4.92009075 
4.84230408 0.00000000 4.84230408 
4.92009075 4.83826478 4.92009075 
4.93223680 4.83684135 4.93223680 
4.85258716 0.00000000 4.85258716 
4.93223680 4.83684135 4.93223680 
</DataArray>
                <DataArray Name="Fission RX g1" type="Float64" format="ascii">
0.51859848 0.46364140 0.51859848 
0.46171551 0.00000000 0.46171551 
0.51859848 0.46364140 0.51859848 
0.51297055 0.46081388 0.51297055 
0.45875099 0.00000000 0.45875099 
0.51297055 0.46081388 0.51297055 
0.51123468 0.45851691 0.51123468 
0.45832947 0.00000000 0.45832947 
0.51123468 0.45851691 0.51123468 
0.51132647 0.45432438 0.51132647 
0.45589685 0.00000000 0.45589685 
0.51132647 0.45432438 0.51132647 
0.51027948 0.45761069 0.51027948 
0.45604669 0.00000000 0.45604669 
0.51027948 0.45761069 0.51027948 
0.51059330 0.45828693 0.51059330 
0.45673375 0.00000000 0.45673375 
0.51059330 0.45828693 0.51059330 
0.51564154 0.45873887 0.51564154 
0.46084147 0.00000000 0.46084147 
0.51564154 0.45873887 0.51564154 
0.51427099 0.45994305 0.51427099 
0.46090869 0.00000000 0.46090869 
0.51427099 0.45994305 0.51427099 
0.51304681 0.46005136 0.51304681 
0.45962784 0.00000000 0.45962784 
0.51304681 0.46005136 0.51304681 
0.51031115 0.45711339 0.51031115 
0.45785600 0.00000000 0.45785600 
0.51031115 0.45711339 0.51031115 
0.51019064 0.45665870 0.51019064 
0.45699628 0.00000000 0.45699628 
0.51019064 0.45665870 0.51019064 
0.50879070 0.45578901 0.50879070 
0.45418457 0.00000000 0.45418457 
0.50879070 0.45578901 0.50879070 
0.51030075 0.45771787 0.51030075 
0.45777865 0.00000000 0.45777865 
0.51030075 0.45771787 0.51030075 
0.51327633 0.45737939 0.51327633 
0.46082648 0.00000000 0.46082648 
0.51327633 0.45737939 0.51327633 
0.51465734 0.46094976 0.51465734 
0.46118233 0.00000000 0.46118233 
0.51465734 0.46094976 0.51465734 
0.51465734 0.46094976 0.51465734 
0.46118233 0.00000000 0.46118233 
0.51465734 0.46094976 0.51465734 
0.51327633 0.45737939 0.51327633 
0.46082648 0.00000000 0.46082648 
0.51327633 0.45737939 0.51327633 
0.51030075 0.45771787 0.51030075 
0.45777864 0.00000000 0.45777864 
0.51030075 0.45771787 0.51030075 
0.50879069 0.45578901 0.50879069 
0.45418457 0.00000000 0.45418457 
0.50879069 0.45578901 0.50879069 
0.51019063 0.45665869 0.51019063 
0.45699627 0.00000000 0.45699627 
0.51019063 0.45665869 0.51019063 
0.51031114 0.45711339 0.51031114 
0.45785599 0.00000000 0.45785599 
0.51031114 0.45711339 0.51031114 
0.51304679 0.46005135 0.51304679 
0.45962783 0.00000000 0.45962783 
0.51304679 0.46005135 0.51304679 
0.51427098 0.45994303 0.51427098 
0.46090868 0.00000000 0.46090868 
0.51427098 0.45994303 0.51427098 
0.51564153 0.45873886 0.51564153 
0.46084145 0.00000000 0.46084145 
0.51564153 0.45873886 0.51564153 
0.51059328 0.45828691 0.51059328 
0.45673374 0.00000000 0.45673374 
0.51059328 0.45828691 0.51059328 
0.51027947 0.45761067 0.51027947 
0.45604667 0.00000000 0.45604667 
0.51027947 0.45761067 0.51027947 
0.51132646 0.45432436 0.51132646 
0.45589683 0.00000000 0.45589683 
0.51132646 0.45432436 0.51132646 
0.51123466 0.45851689 0.51123466 
0.45832945 0.00000000 0.45832945 
0.51123466 0.45851689 0.51123466 
0.51297053 0.46081387 0.51297053 
0.45875097 0.00000000 0.45875097 
0.51297053 0.46081387 0.51297053 
0.51859846 0.46364138 0.51859846 
0.46171549 0.00000000 0.46171549 
0.51859846 0.46364138 0.51859846 
</DataArray>
                <DataArray Name="Avg Fission RX g1" type="Float64" format="ascii">
0.37760613 0.37416216 0.37760613 
0.37407642 0.00000000 0.37407642 
0.37760613 0.37416216 0.37760613 
0.37744164 0.37413340 0.37744164 
0.37395906 0.00000000 0.37395906 
0.37744164 0.37413340 0.37744164 
0.37730156 0.37394879 0.37730156 
0.37392712 0.00000000 0.37392712 
0.37730156 0.37394879 0.37730156 
0.37721447 0.37378937 0.37721447 
0.37386707 0.00000000 0.37386707 
0.37721447 0.37378937 0.37721447 
0.37707951 0.37367402 0.37707951 
0.37361125 0.00000000 0.37361125 
0.37707951 0.37367402 0.37707951 
0.37701170 0.37356988 0.37701170 
0.37351573 0.00000000 0.37351573 
0.37701170 0.37356988 0.37701170 
0.37689638 0.37328828 0.37689638 
0.37351511 0.00000000 0.37351511 
0.37689638 0.37328828 0.37689638 
0.37678043 0.37334975 0.37678043 
0.37350495 0.00000000 0.37350495 
0.37678043 0.37334975 0.37678043 
0.37673469 0.37330821 0.37673469 
0.37341200 0.00000000 0.37341200 
0.37673469 0.37330821 0.37673469 
0.37678941 0.37337528 0.37678941 
0.37345807 0.00000000 0.37345807 
0.37678941 0.37337528 0.37678941 
0.37673216 0.37336675 0.37673216 
0.37341216 0.00000000 0.37341216 
0.37673216 0.37336675 0.37673216 
0.37665702 0.37345064 0.37665702 
0.37335368 0.00000000 0.37335368 
0.37665702 0.37345064 0.37665702 
0.37661230 0.37329712 0.37661230 
0.37325990 0.00000000 0.37325990 
0.37661230 0.37329712 0.37661230 
0.37662345 0.37315853 0.37662345 
0.37324224 0.00000000 0.37324224 
0.37662345 0.37315853 0.37662345 
0.37655470 0.37321817 0.37655470 
0.37309626 0.00000000 0.37309626 
0.37655470 0.37321817 0.37655470 
0.37655470 0.37321817 0.37655470 
0.37309626 0.00000000 0.37309626 
0.37655470 0.37321817 0.37655470 
0.37662345 0.37315853 0.37662345 
0.37324223 0.00000000 0.37324223 
0.37662345 0.37315853 0.37662345 
0.37661230 0.37329712 0.37661230 
0.37325989 0.00000000 0.37325989 
0.37661230 0.37329712 0.37661230 
0.37665702 0.37345064 0.37665702 
0.37335367 0.00000000 0.37335367 
0.37665702 0.37345064 0.37665702 
0.37673215 0.37336674 0.37673215 
0.37341216 0.00000000 0.37341216 
0.37673215 0.37336674 0.37673215 
0.37678941 0.37337527 0.37678941 
0.37345806 0.00000000 0.37345806 
0.37678941 0.37337527 0.37678941 
0.37673468 0.37330819 0.37673468 
0.37341200 0.00000000 0.37341200 
0.37673468 0.37330819 0.37673468 
0.37678042 0.37334973 0.37678042 
0.37350494 0.00000000 0.37350494 
0.37678042 0.37334973 0.37678042 
0.37689637 0.37328827 0.37689637 
0.37351510 0.00000000 0.37351510 
0.37689637 0.37328827 0.37689637 
0.37701168 0.37356986 0.37701168 
0.37351572 0.00000000 0.37351572 
0.37701168 0.37356986 0.37701168 
0.37707950 0.37367401 0.37707950 
0.37361123 0.00000000 0.37361123 
0.37707950 0.37367401 0.37707950 
0.37721446 0.37378936 0.37721446 
0.37386705 0.00000000 0.37386705 
0.37721446 0.37378936 0.37721446 
0.37730155 0.37394877 0.37730155 
0.37392710 0.00000000 0.37392710 
0.37730155 0.37394877 0.37730155 
0.37744162 0.37413338 0.37744162 
0.37395905 0.00000000 0.37395905 
0.37744162 0.37413338 0.37744162 
0.37760611 0.37416215 0.37760611 
0.37407641 0.00000000 0.37407641 
0.37760611 0.37416215 0.37760611 
</DataArray>
                <DataArray Name="Fission RX g2" type="Float64" format="ascii">
0.12664550 0.11328597 0.12664550 
0.11284978 0.00000000 0.11284978 
0.12664550 0.11328597 0.12664550 
0.12528973 0.11259881 0.12528973 
0.11212994 0.00000000 0.11212994 
0.12528973 0.11259881 0.12528973 
0.12487259 0.11205801 0.12487259 
0.11201173 0.00000000 0.11201173 
0.12487259 0.11205801 0.12487259 
0.12489256 0.11105362 0.12489256 
0.11141625 0.00000000 0.11141625 
0.12489256 0.11105362 0.12489256 
0.12465520 0.11186027 0.12465520 
0.11149094 0.00000000 0.11149094 
0.12465520 0.11186027 0.12465520 
0.12473624 0.11203523 0.12473624 
0.11166489 0.00000000 0.11166489 
0.12473624 0.11203523 0.12473624 
0.12598967 0.11219426 0.12598967 
0.11266683 0.00000000 0.11266683 
0.12598967 0.11219426 0.12598967 
0.12567632 0.11246691 0.12567632 
0.11267818 0.00000000 0.11267818 
0.12567632 0.11246691 0.12567632 
0.12537428 0.11248944 0.12537428 
0.11237673 0.00000000 0.11237673 
0.12537428 0.11248944 0.12537428 
0.12467072 0.11174557 0.12467072 
0.11192047 0.00000000 0.11192047 
0.12467072 0.11174557 0.12467072 
0.12463844 0.11162627 0.12463844 
0.11171094 0.00000000 0.11171094 
0.12463844 0.11162627 0.12463844 
0.12430364 0.11139347 0.12430364 
0.11102235 0.00000000 0.11102235 
0.12430364 0.11139347 0.12430364 
0.12467579 0.11188740 0.12467579 
0.11190530 0.00000000 0.11190530 
0.12467579 0.11188740 0.12467579 
0.12540139 0.11183539 0.12540139 
0.11265035 0.00000000 0.11265035 
0.12540139 0.11183539 0.12540139 
0.12576647 0.11269897 0.12576647 
0.11276949 0.00000000 0.11276949 
0.12576647 0.11269897 0.12576647 
0.12576647 0.11269897 0.12576647 
0.11276949 0.00000000 0.11276949 
0.12576647 0.11269897 0.12576647 
0.12540138 0.11183539 0.12540138 
0.11265035 0.00000000 0.11265035 
0.12540138 0.11183539 0.12540138 
0.12467579 0.11188740 0.12467579 
0.11190530 0.00000000 0.11190530 
0.12467579 0.11188740 0.12467579 
0.12430364 0.11139347 0.12430364 
0.11102235 0.00000000 0.11102235 
0.12430364 0.11139347 0.12430364 
0.12463844 0.11162626 0.12463844 
0.11171094 0.00000000 0.11171094 
0.12463844 0.11162626 0.12463844 
0.12467072 0.11174556 0.12467072 
0.11192046 0.00000000 0.11192046 
0.12467072 0.11174556 0.12467072 
0.12537427 0.11248944 0.12537427 
0.11237673 0.00000000 0.11237673 
0.12537427 0.11248944 0.12537427 
0.12567632 0.11246690 0.12567632 
0.11267818 0.00000000 0.11267818 
0.12567632 0.11246690 0.12567632 
0.12598967 0.11219426 0.12598967 
0.11266683 0.00000000 0.11266683 
0.12598967 0.11219426 0.12598967 
0.12473624 0.11203523 0.12473624 
0.11166489 0.00000000 0.11166489 
0.12473624 0.11203523 0.12473624 
0.12465519 0.11186027 0.12465519 
0.11149094 0.00000000 0.11149094 
0.12465519 0.11186027 0.12465519 
0.12489255 0.11105362 0.12489255 
0.11141625 0.00000000 0.11141625 
0.12489255 0.11105362 0.12489255 
0.12487258 0.11205801 0.12487258 
0.11201173 0.00000000 0.11201173 
0.12487258 0.11205801 0.12487258 
0.12528973 0.11259881 0.12528973 
0.11212994 0.00000000 0.11212994 
0.12528973 0.11259881 0.12528973 
0.12664550 0.11328597 0.12664550 
0.11284977 0.00000000 0.11284977 
0.12664550 0.11328597 0.12664550 
</DataArray>