<VTKFile type="UnstructuredGrid" version="0.1">
    <UnstructuredGrid>
        <Piece NumberOfPoints="2160" NumberOfCells="270" NumberOfCellsXY="9" type="Rectangular Mesh" Extent="3 3 30">
            <Points>
                <DataArray Name="Vertices" type="Float64" NumberOfComponents="3" format="ascii">
 -0.630000 -0.630000 -21.420000 -1.890000 -0.630000 -21.420000 -1.890000 -1.890000 -21.420000 -0.630000 -1.890000 -21.420000 -0.630000 -0.630000 -19.992000 -1.890000 -0.630000 -19.992000 -1.890000 -1.890000 -19.992000 -0.630000 -1.890000 -19.992000 0.630000 -0.630000 -21.420000 -0.630000 -0.630000 -21.420000 -0.630000 -1.890000 -21.420000 0.630000 -1.890000 -21.420000 0.630000 -0.630000 -19.992000 -0.630000 -0.630000 -19.992000 -0.630000 -1.890000 -19.992000 0.630000 -1.890000 -19.992000 1.890000 -0.630000 -21.420000 0.630000 -0.630000 -21.420000 0.630000 -1.890000 -21.420000 1.890000 -1.890000 -21.420000 1.890000 -0.630000 -19.992000 0.630000 -0.630000 -19.992000 0.630000 -1.890000 -19.992000 1.890000 -1.890000 -19.992000 -0.630000 0.630000 -21.420000 -1.890000 0.630000 -21.420000 -1.890000 -0.630000 -21.420000 -0.630000 -0.630000 -21.420000 -0.630000 0.630000 -19.992000 -1.890000 0.630000 -19.992000 -1.890000 -0.630000 -19.992000 -0.630000 -0.630000 -19.992000 0.630000 0.630000 -21.420000 -0.630000 0.630000 -21.420000 -0.630000 -0.630000 -21.420000 0.630000 -0.630000 -21.420000 0.630000 0.630000 -19.992000 -0.630000 0.630000 -19.992000 -0.630000 -0.630000 -19.992000 0.630000 -0.630000 -19.992000 1.890000 0.630000 -21.420000 0.630000 0.630000 -21.420000 0.630000 -0.630000 -21.420000 1.890000 -0.630000 -21.420000 1.890000 0.630000 -19.992000 0.630000 0.630000 -19.992000 0.630000 -0.630000 -19.992000 1.890000 -0.630000 -19.992000 -0.630000 1.890000 -21.420000 -1.890000 1.890000 -21.420000 -1.890000 0.630000 -21.420000 -0.630000 0.630000 -21.420000 -0.630000 1.890000 -19.992000 -1.890000 1.890000 -19.992000 -1.890000 0.630000 -19.992000 -0.630000 0.630000 -19.992000 0.630000 1.890000 -21.420000 -0.630000 1.890000 -21.420000 -0.630000 0.630000 -21.420000 0.630000 0.630000 -21.420000 0.630000 1.890000 -19.992000 -0.630000 1.890000 -19.992000 -0.630000 0.630000 -19.992000 0.630000 0.630000 -19.992000 1.890000 1.890000 -21.420000 0.630000 1.890000 -21.420000 0.630000 0.630000 -21.420000 1.890000 0.630000 -21.420000 1.890000 1.890000 -19.992000 0.630000 1.890000 -19.992000 0.630000 0.630000 -19.992000 1.890000 0.630000 -19.992000 -0.630000 -0.630000 -19.992000 -1.890000 -0.630000 -19.992000 -1.890000 -1.890000 -19.992000 -0.630000 -1.890000 -19.992000 -0.630000 -0.630000 -18.564000 -1.890000 -0.630000 -18.564000 -1.890000 -1.890000 -18.564000 -0.630000 -1.890000 -18.564000 0.630000 -0.630000 -19.992000 -0.630000 -0.630000 -19.992000 -0.630000 -1.890000 -19.992000 0.630000 -1.890000 -19.992000 0.630000 -0.630000 -18.564000 -0.630000 -0.630000 -18.564000 -0.630000 -1.890000 -18.564000 0.630000 -1.890000 -18.564000 1.890000 -0.630000 -19.992000 0.630000 -0.630000 -19.992000 0.630000 -1.890000 -19.992000 1.890000 -1.890000 -19.992000 1.890000 -0.630000 -18.564000 0.630000 -0.630000 -18.564000 0.630000 -1.890000 -18.564000 1.890000 -1.890000 -18.564000 -0.630000 0.630000 -19.992000 -1.890000 0.630000 -19.992000 -1.890000 -0.630000 -19.992000 -0.630000 -0.630000 -19.992000 -0.630000 0.630000 -18.564000 -1.890000 0.630000 -18.564000 -1.890000 -0.630000 -18.564000 -0.630000 -0.630000 -18.564000 0.630000 0.630000 -19.992000 -0.630000 0.630000 -19.992000 -0.630000 -0.630000 -19.992000 0.630000 -0.630000 -19.992000 0.630000 0.630000 -18.564000 -0.630000 0.630000 -18.564000 -0.630000 -0.630000 -18.564000 0.630000 -0.630000 -18.564000 1.890000 0.630000 -19.992000 0.630000 0.630000 -19.992000 0.630000 -0.630000 -19.992000 1.890000 -0.630000 -19.992000 1.890000 0.630000 -18.564000 0.630000 0.630000 -18.564000 0.630000 -0.630000 -18.564000 1.890000 -0.630000 -18.564000 -0.630000 1.890000 -19.992000 -1.890000 1.890000 -19.992000 -1.890000 0.630000 -19.992000 -0.630000 0.630000 -19.992000 -0.630000 1.890000 -18.564000 -1.890000 1.890000 -18.564000 -1.890000 0.630000 -18.564000 -0.630000 0.630000 -18.564000 0.630000 1.890000 -19.992000 -0.630000 1.890000 -19.992000 -0.630000 0.630000 -19.992000 0.630000 0.630000 -19.992000 0.630000 1.890000 -18.564000 -0.630000 1.890000 -18.564000 -0.630000 0.630000 -18.564000 0.630000 0.630000 -18.564000 1.890000 1.890000 -19.992000 0.630000 1.890000 -19.992000 0.630000 0.630000 -19.992000 1.890000 0.630000 -19.992000 1.890000 1.890000 -18.564000 0.630000 1.890000 -18.564000 0.630000 0.630000 -18.564000 1.890000 0.630000 -18.564000 -0.630000 -0.630000 -18.564000 -1.890000 -0.630000 -18.564000 -1.890000 -1.890000 -18.564000 -0.630000 -1.890000 -18.564000 -0.630000 -0.630000 -17.136000 -1.890000 -0.630000 -17.136000 -1.890000 -1.890000 -17.136000 -0.630000 -1.890000 -17.136000 0.630000 -0.630000 -18.564000 -0.630000 -0.630000 -18.564000 -0.630000 -1.890000 -18.564000 0.630000 -1.890000 -18.564000 0.630000 -0.630000 -17.136000 -0.630000 -0.630000 -17.136000 -0.630000 -1.890000 -17.136000 0.630000 -1.890000 -17.136000 1.890000 -0.630000 -18.564000 0.630000 -0.630000 -18.564000 0.630000 -1.890000 -18.564000 1.890000 -1.890000 -18.564000 1.890000 -0.630000 -17.136000 0.630000 -0.630000 -17.136000 0.630000 -1.890000 -17.136000 1.890000 -1.890000 -17.136000 -0.630000 0.630000 -18.564000 -1.890000 0.630000 -18.564000 -1.890000 -0.630000 -18.564000 -0.630000 -0.630000 -18.564000 -0.630000 0.630000 -17.136000 -1.890000 0.630000 -17.136000 -1.890000 -0.630000 -17.136000 -0.630000 -0.630000 -17.136000 0.630000 0.630000 -18.564000 -0.630000 0.630000 -18.564000 -0.630000 -0.630000 -18.564000 0.630000 -0.630000 -18.564000 0.630000 0.630000 -17.136000 -0.630000 0.630000 -17.136000 -0.630000 -0.630000 -17.136000 0.630000 -0.630000 -17.136000 1.890000 0.630000 -18.564000 0.630000 0.630000 -18.564000 0.630000 -0.630000 -18.564000 1.890000 -0.630000 -18.564000 1.890000 0.630000 -17.136000 0.630000 0.630000 -17.136000 0.630000 -0.630000 -17.136000 1.890000 -0.630000 -17.136000 -0.630000 1.890000 -18.564000 -1.890000 1.890000 -18.564000 -1.890000 0.630000 -18.564000 -0.630000 0.630000 -18.564000 -0.630000 1.890000 -17.136000 -1.890000 1.890000 -17.136000 -1.890000 0.630000 -17.136000 -0.630000 0.630000 -17.136000 0.630000 1.890000 -18.564000 -0.630000 1.890000 -18.564000 -0.630000 0.630000 -18.564000 0.630000 0.630000 -18.564000 0.630000 1.890000 -17.136000 -0.630000 1.890000 -17.136000 -0.630000 0.630000 -17.136000 0.630000 0.630000 -17.136000 1.890000 1.890000 -18.564000 0.630000 1.890000 -18.564000 0.630000 0.630000 -18.564000 1.890000 0.630000 -18.564000 1.890000 1.890000 -17.136000 0.630000 1.890000 -17.136000 0.630000 0.630000 -17.136000 1.890000 0.630000 -17.136000 -0.630000 -0.630000 -17.136000 -1.890000 -0.630000 -17.136000 -1.890000 -1.890000 -17.136000 -0.630000 -1.890000 -17.136000 -0.630000 -0.630000 -15.708000 -1.890000 -0.630000 -15.708000 -1.890000 -1.890000 -15.708000 -0.630000 -1.890000 -15.708000 0.630000 -0.630000 -17.136000 -0.630000 -0.630000 -17.136000 -0.630000 -1.890000 -17.136000 0.630000 -1.890000 -17.136000 0.630000 -0.630000 -15.708000 -0.630000 -0.630000 -15.708000 -0.630000 -1.890000 -15.708000 0.630000 -1.890000 -15.708000 1.890000 -0.630000 -17.136000 0.630000 -0.630000 -17.136000 0.630000 -1.890000 -17.136000 1.890000 -1.890000 -17.136000 1.890000 -0.630000 -15.708000 0.630000 -0.630000 -15.708000 0.630000 -1.890000 -15.708000 1.890000 -1.890000 -15.708000 -0.630000 0.630000 -17.136000 -1.890000 0.630000 -17.136000 -1.890000 -0.630000 -17.136000 -0.630000 -0.630000 -17.136000 -0.630000 0.630000 -15.708000 -1.890000 0.630000 -15.708000 -1.890000 -0.630000 -15.708000 -0.630000 -0.630000 -15.708000 0.630000 0.630000 -17.136000 -0.630000 0.630000 -17.136000 -0.630000 -0.630000 -17.136000 0.630000 -0.630000 -17.136000 0.630000 0.630000 -15.708000 -0.630000 0.630000 -15.708000 -0.630000 -0.630000 -15.708000 0.630000 -0.630000 -15.708000 1.890000 0.630000 -17.136000 0.630000 0.630000 -17.136000 0.630000 -0.630000 -17.136000 1.890000 -0.630000 -17.136000 1.890000 0.630000 -15.708000 0.630000 0.630000 -15.708000 0.630000 -0.630000 -15.708000 1.890000 -0.630000 -15.708000 -0.630000 1.890000 -17.136000 -1.890000 1.890000 -17.136000 -1.890000 0.630000 -17.136000 -0.630000 0.630000 -17.136000 -0.630000 1.890000 -15.708000 -1.890000 1.890000 -15.708000 -1.890000 0.630000 -15.708000 -0.630000 0.630000 -15.708000 0.630000 1.890000 -17.136000 -0.630000 1.890000 -17.136000 -0.630000 0.630000 -17.136000 0.630000 0.630000 -17.136000 0.630000 1.890000 -15.708000 -0.630000 1.890000 -15.708000 -0.630000 0.630000 -15.708000 0.630000 0.630000 -15.708000 1.890000 1.890000 -17.136000 0.630000 1.890000 -17.136000 0.630000 0.630000 -17.136000 1.890000 0.630000 -17.136000 1.890000 1.890000 -15.708000 0.630000 1.890000 -15.708000 0.630000 0.630000 -15.708000 1.890000 0.630000 -15.708000 -0.630000 -0.630000 -15.708000 -1.890000 -0.630000 -15.708000 -1.890000 -1.890000 -15.708000 -0.630000 -1.890000 -15.708000 -0.630000 -0.630000 -14.280000 -1.890000 -0.630000 -14.280000 -1.890000 -1.890000 -14.280000 -0.630000 -1.890000 -14.280000 0.630000 -0.630000 -15.708000 -0.630000 -0.630000 -15.708000 -0.630000 -1.890000 -15.708000 0.630000 -1.890000 -15.708000 0.630000 -0.630000 -14.280000 -0.630000 -0.630000 -14.280000 -0.630000 -1.890000 -14.280000 0.630000 -1.890000 -14.280000 1.890000 -0.630000 -15.708000 0.630000 -0.630000 -15.708000 0.630000 -1.890000 -15.708000 1.890000 -1.890000 -15.708000 1.890000 -0.630000 -14.280000 0.630000 -0.630000 -14.280000 0.630000 -1.890000 -14.280000 1.890000 -1.890000 -14.280000 -0.630000 0.630000 -15.708000 -1.890000 0.630000 -15.708000 -1.890000 -0.630000 -15.708000 -0.630000 -0.630000 -15.708000 -0.630000 0.630000 -14.280000 -1.890000 0.630000 -14.280000 -1.890000 -0.630000 -14.280000 -0.630000 -0.630000 -14.280000 0.630000 0.630000 -15.708000 -0.630000 0.630000 -15.708000 -0.630000 -0.6300
[...]
            <CellData>
                <DataArray Name="Valid Indices" type="Int32" format="ascii">
 0 1 2 3 4 5 6 7 8 9 10 11 12 13 14 15 16 17 18 19 20 21 22 23 24 25 26 27 28 29 30 31 32 33 34 35 36 37 38 39 40 41 42 43 44 45 46 47 48 49 50 51 52 53 54 55 56 57 58 59 60 61 62 63 64 65 66 67 68 69 70 71 72 73 74 75 76 77 78 79 80 81 82 83 84 85 86 87 88 89 90 91 92 93 94 95 96 97 98 99 100 101 102 103 104 105 106 107 108 109 110 111 112 113 114 115 116 117 118 119 120 121 122 123 124 125 126 127 128 129 130 131 132 133 134 135 136 137 138 139 140 141 142 143 144 145 146 147 148 149 150 151 152 153 154 155 156 157 158 159 160 161 162 163 164 165 166 167 168 169 170 171 172 173 174 175 176 177 178 179 180 181 182 183 184 185 186 187 188 189 190 191 192 193 194 195 196 197 198 199 200 201 202 203 204 205 206 207 208 209 210 211 212 213 214 215 216 217 218 219 220 221 222 223 224 225 226 227 228 229 230 231 232 233 234 235 236 237 238 239 240 241 242 243 244 245 246 247 248 249 250 251 252 253 254 255 256 257 258 259 260 261 262 263 264 265 266 267 268 269
</DataArray>
                <DataArray Name="Volume" type="Float64" format="ascii">
2.18161501 2.41545587 2.18161501 
2.43658294 1.97329753 2.43658294 
2.18161501 2.41545587 2.18161501 
2.18381316 2.41985217 2.18381316 
2.43585023 1.95717777 2.43585023 
2.18381316 2.41985217 2.18381316 
2.18747674 2.43011020 2.18747674 
2.42705763 1.93959257 2.42705763 
2.18747674 2.43011020 2.18747674 
2.18527859 2.43450650 2.18527859 
2.42705763 1.93959257 2.42705763 
2.18527859 2.43450650 2.18527859 
2.18820946 2.42864477 2.18820946 
2.42705763 1.93959257 2.42705763 
2.18820946 2.42864477 2.18820946 
2.19071312 2.43114842 2.19071312 
2.42205032 1.93458526 2.42205032 
2.19071312 2.43114842 2.19071312 
2.18778225 2.43701015 2.18778225 
2.42205032 1.93458526 2.42205032 
2.18778225 2.43701015 2.18778225 
2.18998040 2.43261385 2.18998040 
2.42205032 1.93458526 2.42205032 
2.18998040 2.43261385 2.18998040 
2.18631682 2.42235582 2.18631682 
2.43084292 1.95217046 2.43084292 
2.18631682 2.42235582 2.18631682 
2.18411867 2.41795952 2.18411867 
2.43157563 1.96829022 2.43157563 
2.18411867 2.41795952 2.18411867 
2.18411867 2.41795952 2.18411867 
2.43157563 1.96829022 2.43157563 
2.18411867 2.41795952 2.18411867 
2.18631682 2.42235582 2.18631682 
2.43084292 1.95217046 2.43084292 
2.18631682 2.42235582 2.18631682 
2.18998040 2.43261385 2.18998040 
2.42205032 1.93458526 2.42205032 
2.18998040 2.43261385 2.18998040 
2.18778225 2.43701015 2.18778225 
2.42205032 1.93458526 2.42205032 
2.18778225 2.43701015 2.18778225 
2.19071312 2.43114842 2.19071312 
2.42205032 1.93458526 2.42205032 
2.19071312 2.43114842 2.19071312 
2.19071312 2.43114842 2.19071312 
2.42205032 1.93458526 2.42205032 
2.19071312 2.43114842 2.19071312 
2.18778225 2.43701015 2.18778225 
2.42205032 1.93458526 2.42205032 
2.18778225 2.43701015 2.18778225 
2.18998040 2.43261385 2.18998040 
2.42205032 1.93458526 2.42205032 
2.18998040 2.43261385 2.18998040 
2.18631682 2.42235582 2.18631682 
2.43084292 1.95217046 2.43084292 
2.18631682 2.42235582 2.18631682 
2.18411867 2.41795952 2.18411867 
2.43157563 1.96829022 2.43157563 
2.18411867 2.41795952 2.18411867 
2.18411867 2.41795952 2.18411867 
2.43157563 1.96829022 2.43157563 
2.18411867 2.41795952 2.18411867 
2.18631682 2.42235582 2.18631682 
2.43084292 1.95217046 2.43084292 
2.18631682 2.42235582 2.18631682 
2.18998040 2.43261385 2.18998040 
2.42205032 1.93458526 2.42205032 
2.18998040 2.43261385 2.18998040 
2.18778225 2.43701015 2.18778225 
2.42205032 1.93458526 2.42205032 
2.18778225 2.43701015 2.18778225 
2.19071312 2.43114842 2.19071312 
2.42205032 1.93458526 2.42205032 
2.19071312 2.43114842 2.19071312 
2.18820946 2.42864477 2.18820946 
2.42705763 1.93959257 2.42705763 
2.18820946 2.42864477 2.18820946 
2.18527859 2.43450650 2.18527859 
2.42705763 1.93959257 2.42705763 
2.18527859 2.43450650 2.18527859 
2.18747674 2.43011020 2.18747674 
2.42705763 1.93959257 2.42705763 
2.18747674 2.43011020 2.18747674 
2.18381316 2.41985217 2.18381316 
2.43585023 1.95717777 2.43585023 
2.18381316 2.41985217 2.18381316 
2.18161501 2.41545587 2.18161501 
2.43658294 1.97329753 2.43658294 
2.18161501 2.41545587 2.18161501 
</DataArray>
                <DataArray Name="Fission RX" type="Float64" format="ascii">
7.20852231 6.39794108 7.20852231 
6.37943151 0.00000000 6.37943151 
7.20852231 6.39794108 7.20852231 
7.12390028 6.35178172 7.12390028 
6.32864283 0.00000000 6.32864283 
7.12390028 6.35178172 7.12390028 
7.09230534 6.31059480 7.09230534 
6.31368147 0.00000000 6.31368147 
7.09230534 6.31059480 7.09230534 
7.08761569 6.24449045 7.08761569 
6.26760762 0.00000000 6.26760762 
7.08761569 6.24449045 7.08761569 
7.07407865 6.29063907 7.07407865 
6.26572991 0.00000000 6.26572991 
7.07407865 6.29063907 7.07407865 
7.08395515 6.30798196 7.08395515 
6.28134602 0.00000000 6.28134602 
7.08395515 6.30798196 7.08395515 
7.16245156 6.32770831 7.16245156 
6.35071984 0.00000000 6.35071984 
7.16245156 6.32770831 7.16245156 
7.14952723 6.35494904 7.14952723 
6.36017921 0.00000000 6.36017921 
7.14952723 6.35494904 7.14952723 
7.13353272 6.35611632 7.13353272 
6.34244513 0.00000000 6.34244513 
7.13353272 6.35611632 7.13353272 
7.09188331 6.30669053 7.09188331 
6.31265659 0.00000000 6.31265659 
7.09188331 6.30669053 7.09188331 
7.08628430 6.29533506 7.08628430 
6.29616137 0.00000000 6.29616137 
7.08628430 6.29533506 7.08628430 
7.06365994 6.28033353 7.06365994 
6.25624599 0.00000000 6.25624599 
7.06365994 6.28033353 7.06365994 
7.08667784 6.30754923 7.08667784 
6.31193949 0.00000000 6.31193949 
7.08667784 6.30754923 7.08667784 
7.13046144 6.30325704 7.13046144 
6.35664785 0.00000000 6.35664785 
7.13046144 6.30325704 7.13046144 
7.15223949 6.35339471 7.15223949 
6.36480596 0.00000000 6.36480596 
7.15223949 6.35339471 7.15223949 
7.15223949 6.35339471 7.15223949 
6.36480596 0.00000000 6.36480596 
7.15223949 6.35339471 7.15223949 
7.13046144 6.30325704 7.13046144 
6.35664785 0.00000000 6.35664785 
7.13046144 6.30325704 7.13046144 
7.08667785 6.30754923 7.08667785 
6.31193949 0.00000000 6.31193949 
7.08667785 6.30754923 7.08667785 
7.06365994 6.28033352 7.06365994 
6.25624599 0.00000000 6.25624599 
7.06365994 6.28033352 7.06365994 
7.08628429 6.29533506 7.08628429 
6.29616137 0.00000000 6.29616137 
7.08628429 6.29533506 7.08628429 
7.09188330 6.30669052 7.09188330 
6.31265657 0.00000000 6.31265657 
7.09188330 6.30669052 7.09188330 
7.13353271 6.35611631 7.13353271 
6.34244512 0.00000000 6.34244512 
7.13353271 6.35611631 7.13353271 
7.14952723 6.35494903 7.14952723 
6.36017921 0.00000000 6.36017921 
7.14952723 6.35494903 7.14952723 
7.16245157 6.32770830 7.16245157 
6.35071985 0.00000000 6.35071985 
7.16245157 6.32770830 7.16245157 
7.08395516 6.30798196 7.08395516 
6.28134602 0.00000000 6.28134602 
7.08395516 6.30798196 7.08395516 
7.07407866 6.29063907 7.07407866 
6.26572991 0.00000000 6.26572991 
7.07407866 6.29063907 7.07407866 
7.08761568 6.24449046 7.08761568 
6.26760761 0.00000000 6.26760761 
7.08761568 6.24449046 7.08761568 
7.09230534 6.31059480 7.09230534 
6.31368147 0.00000000 6.31368147 
7.09230534 6.31059480 7.09230534 
7.12390028 6.35178172 7.12390028 
6.32864283 0.00000000 6.32864283 
7.12390028 6.35178172 7.12390028 
7.20852231 6.39794109 7.20852231 
6.37943151 0.00000000 6.37943151 
7.20852231 6.39794109 7.20852231 
</DataArray>
                <DataArray Name="Avg Fission RX" type="Float64" format="ascii">
5.24872764 5.16318754 5.24872764 
5.16853963 0.00000000 5.16853963 
5.24872764 5.16318754 5.24872764 
5.24173671 5.15699238 5.24173671 
5.15890629 0.00000000 5.15890629 
5.24173671 5.15699238 5.24173671 
5.23426515 5.14667886 5.23426515 
5.15100353 0.00000000 5.15100353 
5.23426515 5.14667886 5.23426515 
5.22865792 5.13757188 5.22865792 
5.13987341 0.00000000 5.13987341 
5.22865792 5.13757188 5.22865792 
5.22750810 5.13678651 5.22750810 
5.13313054 0.00000000 5.13313054 
5.22750810 5.13678651 5.22750810 
5.23064822 5.14191420 5.23064822 
5.13686920 0.00000000 5.13686920 
5.23064822 5.14191420 5.23064822 
5.23523003 5.14902819 5.23523003 
5.14730117 0.00000000 5.14730117 
5.23523003 5.14902819 5.23523003 
5.23809819 5.15850519 5.23809819 
5.15407598 0.00000000 5.15407598 
5.23809819 5.15850519 5.23809819 
5.23821448 5.15766407 5.23821448 
5.15274520 0.00000000 5.15274520 
5.23821448 5.15766407 5.23821448 
5.23630838 5.15137462 5.23630838 
5.14902625 0.00000000 5.14902625 
5.23630838 5.15137462 5.23630838 
5.23261493 5.14710171 5.23261493 
5.14460040 0.00000000 5.14460040 
5.23261493 5.14710171 5.23261493 
5.22921731 5.14579008 5.22921731 
5.14282652 0.00000000 5.14282652 
5.22921731 5.14579008 5.22921731 
5.23011195 5.14419501 5.23011195 
5.14657880 0.00000000 5.14657880 
5.23011195 5.14419501 5.23011195 
5.23207253 5.14258885 5.23207253 
5.14850934 0.00000000 5.14850934 
5.23207253 5.14258885 5.23207253 
5.23301469 5.14416654 5.23301469 
5.14912466 0.00000000 5.14912466 
5.23301469 5.14416654 5.23301469 
5.23301469 5.14416654 5.23301469 
5.14912466 0.00000000 5.14912466 
5.23301469 5.14416654 5.23301469 
5.23207253 5.14258885 5.23207253 
5.14850934 0.00000000 5.14850934 
5.23207253 5.14258885 5.23207253 
5.23011195 5.14419501 5.23011195 
5.14657880 0.00000000 5.14657880 
5.23011195 5.14419501 5.23011195 
5.22921731 5.14579008 5.22921731 
5.14282651 0.00000000 5.14282651 
5.22921731 5.14579008 5.22921731 
5.23261492 5.14710171 5.23261492 
5.14460040 0.00000000 5.14460040 
5.23261492 5.14710171 5.23261492 
5.23630838 5.15137462 5.23630838 
5.14902624 0.00000000 5.14902624 
5.23630838 5.15137462 5.23630838 
5.23821448 5.15766406 5.23821448 
5.15274519 0.00000000 5.15274519 
5.23821448 5.15766406 5.23821448 
5.23809820 5.15850519 5.23809820 
5.15407598 0.00000000 5.15407598 
5.23809820 5.15850519 5.23809820 
5.23523004 5.14902819 5.23523004 
5.14730117 0.00000000 5.14730117 
5.23523004 5.14902819 5.23523004 
5.23064823 5.14191420 5.23064823 
5.13686920 0.00000000 5.13686920 
5.23064823 5.14191420 5.23064823 
5.22750810 5.13678651 5.22750810 
5.13313054 0.00000000 5.13313054 
5.22750810 5.13678651 5.22750810 
5.22865791 5.13757188 5.22865791 
5.13987340 0.00000000 5.13987340 
5.22865791 5.13757188 5.22865791 
5.23426515 5.14667886 5.23426515 
5.15100353 0.00000000 5.15100353 
5.23426515 5.14667886 5.23426515 
5.24173671 5.15699238 5.24173671 
5.15890630 0.00000000 5.15890630 
5.24173671 5.15699238 5.24173671 
5.24872764 5.16318755 5.24872764 
5.16853963 0.00000000 5.16853963 
5.24872764 5.16318755 5.24872764 
</DataArray>
                <DataArray Name="Fission RX g1" type="Float64" format="ascii">
0.55221547 0.49389231 0.55221547 
0.49169484 0.00000000 0.49169484 
0.55221547 0.49389231 0.55221547 
0.54634483 0.49080844 0.54634483 
0.48861462 0.00000000 0.48861462 
0.54634483 0.49080844 0.54634483 
0.54459834 0.48843966 0.54459834 
0.48823346 0.00000000 0.48823346 
0.54459834 0.48843966 0.54459834 
0.54480081 0.48406073 0.54480081 
0.48573546 0.00000000 0.48573546 
0.54480081 0.48406073 0.54480081 
0.54377887 0.48765041 0.54377887 
0.48598923 0.00000000 0.48598923 
0.54377887 0.48765041 0.54377887 
0.54420168 0.48846034 0.54420168 
0.48680179 0.00000000 0.48680179 
0.54420168 0.48846034 0.54420168 
0.54966164 0.48901169 0.54966164 
0.49125382 0.00000000 0.49125382 
0.54966164 0.48901169 0.54966164 
0.54826479 0.49035151 0.54826479 
0.49138198 0.00000000 0.49138198 
0.54826479 0.49035151 0.54826479 
0.54701507 0.49051744 0.54701507 
0.49006214 0.00000000 0.49006214 
0.54701507 0.49051744 0.54701507 
0.54414811 0.48742615 0.54414811 
0.48821914 0.00000000 0.48821914 
0.54414811 0.48742615 0.54414811 
0.54405997 0.48697867 0.54405997 
0.48733851 0.00000000 0.48733851 
0.54405997 0.48697867 0.54405997 
0.54259976 0.48608159 0.54259976 
0.48436978 0.00000000 0.48436978 
0.54259976 0.48608159 0.54259976 
0.54423573 0.48816098 0.54423573 
0.48822592 0.00000000 0.48822592 
0.54423573 0.48816098 0.54423573 
0.54742653 0.48781540 0.54742653 
0.49149171 0.00000000 0.49149171 
0.54742653 0.48781540 0.54742653 
0.54890798 0.49163097 0.54890798 
0.49187846 0.00000000 0.49187846 
0.54890798 0.49163097 0.54890798 
0.54890798 0.49163097 0.54890798 
0.49187846 0.00000000 0.49187846 
0.54890798 0.49163097 0.54890798 
0.54742653 0.48781540 0.54742653 
0.49149171 0.00000000 0.49149171 
0.54742653 0.48781540 0.54742653 
0.54423573 0.48816098 0.54423573 
0.48822592 0.00000000 0.48822592 
0.54423573 0.48816098 0.54423573 
0.54259976 0.48608159 0.54259976 
0.48436978 0.00000000 0.48436978 
0.54259976 0.48608159 0.54259976 
0.54405997 0.48697867 0.54405997 
0.48733851 0.00000000 0.48733851 
0.54405997 0.48697867 0.54405997 
0.54414810 0.48742615 0.54414810 
0.48821914 0.00000000 0.48821914 
0.54414810 0.48742615 0.54414810 
0.54701507 0.49051744 0.54701507 
0.49006214 0.00000000 0.49006214 
0.54701507 0.49051744 0.54701507 
0.54826479 0.49035151 0.54826479 
0.49138198 0.00000000 0.49138198 
0.54826479 0.49035151 0.54826479 
0.54966164 0.48901169 0.54966164 
0.49125382 0.00000000 0.49125382 
0.54966164 0.48901169 0.54966164 
0.54420168 0.48846034 0.54420168 
0.48680179 0.00000000 0.48680179 
0.54420168 0.48846034 0.54420168 
0.54377887 0.48765041 0.54377887 
0.48598923 0.00000000 0.48598923 
0.54377887 0.48765041 0.54377887 
0.54480081 0.48406073 0.54480081 
0.48573546 0.00000000 0.48573546 
0.54480081 0.48406073 0.54480081 
0.54459834 0.48843966 0.54459834 
0.48823346 0.00000000 0.48823346 
0.54459834 0.48843966 0.54459834 
0.54634483 0.49080844 0.54634483 
0.48861462 0.00000000 0.48861462 
0.54634483 0.49080844 0.54634483 
0.55221547 0.49389231 0.55221547 
0.49169484 0.00000000 0.49169484 
0.55221547 0.49389231 0.55221547 
</DataArray>
                <DataArray Name="Avg Fission RX g1" type="Float64" format="ascii">
0.40208360 0.39857489 0.40208360 
0.39836532 0.00000000 0.39836532 
0.40208360 0.39857489 0.40208360 
0.40199829 0.39848589 0.40199829 
0.39830294 0.00000000 0.39830294 
0.40199829 0.39848589 0.40199829 
0.40192462 0.39835263 0.40192462 
0.39832423 0.00000000 0.39832423 
0.40192462 0.39835263 0.40192462 
0.40190908 0.39825456 0.40190908 
0.39833681 0.00000000 0.39833681 
0.40190908 0.39825456 0.40190908 
0.40183444 0.39820375 0.40183444 
0.39814135 0.00000000 0.39814135 
0.40183444 0.39820375 0.40183444 
0.40182744 0.39816556 0.40182744 
0.39810530 0.00000000 0.39810530 
0.40182744 0.39816556 0.40182744 
0.40176260 0.39792210 0.40176260 
0.39816453 0.00000000 0.39816453 
0.40176260 0.39792210 0.40176260 
0.40168597 0.39803322 0.40168597 
0.39819948 0.00000000 0.39819948 
0.40168597 0.39803322 0.40168597 
0.40167788 0.39802987 0.40167788 
0.39813752 0.00000000 0.39813752 
0.40167788 0.39802987 0.40167788 
0.40177301 0.39813507 0.40177301 
0.39822429 0.00000000 0.39822429 
0.40177301 0.39813507 0.40177301 
0.40174176 0.39815653 0.40174176 
0.39820483 0.00000000 0.39820483 
0.40174176 0.39815653 0.40174176 
0.40168583 0.39827086 0.40168583 
0.39816685 0.00000000 0.39816685 
0.40168583 0.39827086 0.40168583 
0.40165701 0.39812535 0.40165701 
0.39808575 0.00000000 0.39808575 
0.40165701 0.39812535 0.40165701 
0.40168162 0.39799012 0.40168162 
0.39807926 0.00000000 0.39807926 
0.40168162 0.39799012 0.40168162 
0.40161456 0.39805988 0.40161456 
0.39792941 0.00000000 0.39792941 
0.40161456 0.39805988 0.40161456 
0.40161456 0.39805988 0.40161456 
0.39792941 0.00000000 0.39792941 
0.40161456 0.39805988 0.40161456 
0.40168162 0.39799012 0.40168162 
0.39807926 0.00000000 0.39807926 
0.40168162 0.39799012 0.40168162 
0.40165701 0.39812535 0.40165701 
0.39808575 0.00000000 0.39808575 
0.40165701 0.39812535 0.40165701 
0.40168583 0.39827086 0.40168583 
0.39816685 0.00000000 0.39816685 
0.40168583 0.39827086 0.40168583 
0.40174176 0.39815653 0.40174176 
0.39820483 0.00000000 0.39820483 
0.40174176 0.39815653 0.40174176 
0.40177301 0.39813507 0.40177301 
0.39822429 0.00000000 0.39822429 
0.40177301 0.39813507 0.40177301 
0.40167787 0.39802987 0.40167787 
0.39813752 0.00000000 0.39813752 
0.40167787 0.39802987 0.40167787 
0.40168597 0.39803322 0.40168597 
0.39819948 0.00000000 0.39819948 
0.40168597 0.39803322 0.40168597 
0.40176260 0.39792210 0.40176260 
0.39816453 0.00000000 0.39816453 
0.40176260 0.39792210 0.40176260 
0.40182744 0.39816556 0.40182744 
0.39810530 0.00000000 0.39810530 
0.40182744 0.39816556 0.40182744 
0.40183444 0.39820375 0.40183444 
0.39814135 0.00000000 0.39814135 
0.40183444 0.39820375 0.40183444 
0.40190908 0.39825456 0.40190908 
0.39833681 0.00000000 0.39833681 
0.40190908 0.39825456 0.40190908 
0.40192462 0.39835263 0.40192462 
0.39832423 0.00000000 0.39832423 
0.40192462 0.39835263 0.40192462 
0.40199829 0.39848589 0.40199829 
0.39830294 0.00000000 0.39830294 
0.40199829 0.39848589 0.40199829 
0.40208360 0.39857489 0.40208360 
0.39836532 0.00000000 0.39836532 
0.40208360 0.39857489 0.40208360 
</DataArray>
                <DataArray Name="Fission RX g2" type="Float64" format="ascii">
0.13495252 0.12075231 0.13495252 
0.12025475 0.00000000 0.12025475 
0.13495252 0.12075231 0.13495252 
0.13352734 0.12000724 0.13352734 
0.11950335 0.00000000 0.11950335 
0.13352734 0.12000724 0.13352734 
0.13310192 0.11944369 0.13310192 
0.11939363 0.00000000 0.11939363 
0.13310192 0.11944369 0.13310192 
0.13314404 0.11839083 0.13314404 
0.11877744 0.00000000 0.11877744 
0.13314404 0.11839083 0.13314404 
0.13291169 0.11926951 0.13291169 
0.11887579 0.00000000 0.11887579 
0.13291169 0.11926951 0.13291169 
0.13301792 0.11947410 0.13301792 
0.11907896 0.00000000 0.11907896 
0.13301792 0.11947410 0.13301792 
0.13437109 0.11965841 0.13437109 
0.12016242 0.00000000 0.12016242 
0.13437109 0.11965841 0.13437109 
0.13404916 0.11996003 0.13404916 
0.12018550 0.00000000 0.12018550 
0.13404916 0.11996003 0.13404916 
0.13373757 0.11999377 0.13373757 
0.11987338 0.00000000 0.11987338 
0.13373757 0.11999377 0.13373757 
0.13299743 0.11920953 0.13299743 
0.11939610 0.00000000 0.11939610 
0.13299743 0.11920953 0.13299743 
0.13297197 0.11909034 0.13297197 
0.11918061 0.00000000 0.11918061 
0.13297197 0.11909034 0.13297197 
0.13262223 0.11884868 0.13262223 
0.11845260 0.00000000 0.11845260 
0.13262223 0.11884868 0.13262223 
0.13302508 0.11938083 0.13302508 
0.11939987 0.00000000 0.11939987 
0.13302508 0.11938083 0.13302508 
0.13380319 0.11932881 0.13380319 
0.12019835 0.00000000 0.12019835 
0.13380319 0.11932881 0.13380319 
0.13419458 0.12025194 0.13419458 
0.12032708 0.00000000 0.12032708 
0.13419458 0.12025194 0.13419458 
0.13419458 0.12025194 0.13419458 
0.12032708 0.00000000 0.12032708 
0.13419458 0.12025194 0.13419458 
0.13380319 0.11932881 0.13380319 
0.12019835 0.00000000 0.12019835 
0.13380319 0.11932881 0.13380319 
0.13302508 0.11938083 0.13302508 
0.11939987 0.00000000 0.11939987 
0.13302508 0.11938083 0.13302508 
0.13262223 0.11884868 0.13262223 
0.11845260 0.00000000 0.11845260 
0.13262223 0.11884868 0.13262223 
0.13297197 0.11909034 0.13297197 
0.11918061 0.00000000 0.11918061 
0.13297197 0.11909034 0.13297197 
0.13299743 0.11920953 0.13299743 
0.11939610 0.00000000 0.11939610 
0.13299743 0.11920953 0.13299743 
0.13373757 0.11999377 0.13373757 
0.11987338 0.00000000 0.11987338 
0.13373757 0.11999377 0.13373757 
0.13404916 0.11996003 0.13404916 
0.12018550 0.00000000 0.12018550 
0.13404916 0.11996003 0.13404916 
0.13437109 0.11965841 0.13437109 
0.12016242 0.00000000 0.12016242 
0.13437109 0.11965841 0.13437109 
0.13301792 0.11947410 0.13301792 
0.11907896 0.00000000 0.11907896 
0.13301792 0.11947410 0.13301792 
0.13291168 0.11926951 0.13291168 
0.11887579 0.00000000 0.11887579 
0.13291168 0.11926951 0.13291168 
0.13314404 0.11839083 0.13314404 
0.11877744 0.00000000 0.11877744 
0.13314404 0.11839083 0.13314404 
0.13310192 0.11944369 0.13310192 
0.11939363 0.00000000 0.11939363 
0.13310192 0.11944369 0.13310192 
0.13352734 0.12000724 0.13352734 
0.11950335 0.00000000 0.11950335 
0.13352734 0.12000724 0.13352734 
0.13495252 0.12075231 0.13495252 
0.12025475 0.00000000 0.12025475 
0.13495252 0.12075231 0.13495252 
</DataArray>